<?xml version="1.0" encoding="UTF-8"?>

<!-- generated on Fri Oct 20 01:25:19 2017 by SUMO sumo Version 0.21.0
<?xml version="1.0" encoding="UTF-8"?>

<configuration xmlns:xsi="http://www.w3.org/2001/XMLSchema-instance" xsi:noNamespaceSchemaLocation="http://sumo-sim.org/xsd/sumoConfiguration.xsd">

    <input>
        <net-file value="urban.net.xml"/>
        <route-files value="urban.rou.xml"/>
    </input>

    <output>
        <fcd-output value="urban.conf.fcd"/>
    </output>

</configuration>
-->

<fcd-export xmlns:xsi="http://www.w3.org/2001/XMLSchema-instance" xsi:noNamespaceSchemaLocation="http://sumo-sim.org/xsd/fcd_file.xsd">
    <timestep time="0.00">
        <vehicle id="0.0" x="16.45" y="-8.25" angle="90.00" type="DEFAULT_VEHTYPE" speed="0.00" pos="5.10" lane="a_0" slope="0.00"/>
    </timestep>
    <timestep time="1.00">
        <vehicle id="0.0" x="17.89" y="-8.25" angle="90.00" type="DEFAULT_VEHTYPE" speed="1.44" pos="6.54" lane="a_0" slope="0.00"/>
    </timestep>
    <timestep time="2.00">
        <vehicle id="0.0" x="21.01" y="-8.25" angle="90.00" type="DEFAULT_VEHTYPE" speed="3.12" pos="9.66" lane="a_0" slope="0.00"/>
    </timestep>
    <timestep time="3.00">
        <vehicle id="0.0" x="26.66" y="-8.25" angle="90.00" type="DEFAULT_VEHTYPE" speed="5.66" pos="15.31" lane="a_0" slope="0.00"/>
    </timestep>
    <timestep time="4.00">
        <vehicle id="0.0" x="34.28" y="-8.25" angle="90.00" type="DEFAULT_VEHTYPE" speed="7.62" pos="22.93" lane="a_0" slope="0.00"/>
    </timestep>
    <timestep time="5.00">
        <vehicle id="0.0" x="43.73" y="-8.25" angle="90.00" type="DEFAULT_VEHTYPE" speed="9.45" pos="32.38" lane="a_0" slope="0.00"/>
    </timestep>
    <timestep time="6.00">
        <vehicle id="0.0" x="55.73" y="-4.95" angle="90.00" type="DEFAULT_VEHTYPE" speed="11.99" pos="44.38" lane="a_1" slope="0.00"/>
    </timestep>
    <timestep time="7.00">
        <vehicle id="0.0" x="69.35" y="-4.95" angle="90.00" type="DEFAULT_VEHTYPE" speed="13.63" pos="58.00" lane="a_1" slope="0.00"/>
        <vehicle id="0.1" x="16.45" y="-8.25" angle="90.00" type="DEFAULT_VEHTYPE" speed="0.00" pos="5.10" lane="a_0" slope="0.00"/>
    </timestep>
    <timestep time="8.00">
        <vehicle id="0.0" x="83.64" y="-4.95" angle="90.00" type="DEFAULT_VEHTYPE" speed="14.29" pos="72.29" lane="a_1" slope="0.00"/>
        <vehicle id="0.1" x="18.73" y="-8.25" angle="90.00" type="DEFAULT_VEHTYPE" speed="2.28" pos="7.38" lane="a_0" slope="0.00"/>
    </timestep>
    <timestep time="9.00">
        <vehicle id="0.0" x="98.64" y="-4.95" angle="90.00" type="DEFAULT_VEHTYPE" speed="14.99" pos="87.29" lane="a_1" slope="0.00"/>
        <vehicle id="0.1" x="22.64" y="-8.25" angle="90.00" type="DEFAULT_VEHTYPE" speed="3.91" pos="11.29" lane="a_0" slope="0.00"/>
    </timestep>
    <timestep time="10.00">
        <vehicle id="0.0" x="113.03" y="-4.95" angle="90.00" type="DEFAULT_VEHTYPE" speed="14.39" pos="101.68" lane="a_1" slope="0.00"/>
        <vehicle id="0.1" x="28.27" y="-8.25" angle="90.00" type="DEFAULT_VEHTYPE" speed="5.63" pos="16.92" lane="a_0" slope="0.00"/>
        <vehicle id="1.0" x="16.45" y="491.75" angle="90.00" type="DEFAULT_VEHTYPE" speed="0.00" pos="5.10" lane="f_0" slope="0.00"/>
    </timestep>
    <timestep time="11.00">
        <vehicle id="0.0" x="127.69" y="-4.95" angle="90.00" type="DEFAULT_VEHTYPE" speed="14.66" pos="116.34" lane="a_1" slope="0.00"/>
        <vehicle id="0.1" x="35.77" y="-8.25" angle="90.00" type="DEFAULT_VEHTYPE" speed="7.50" pos="24.42" lane="a_0" slope="0.00"/>
        <vehicle id="1.0" x="18.46" y="491.75" angle="90.00" type="DEFAULT_VEHTYPE" speed="2.01" pos="7.11" lane="f_0" slope="0.00"/>
    </timestep>
    <timestep time="12.00">
        <vehicle id="0.0" x="142.27" y="-4.95" angle="90.00" type="DEFAULT_VEHTYPE" speed="14.58" pos="130.92" lane="a_1" slope="0.00"/>
        <vehicle id="0.1" x="44.73" y="-8.25" angle="90.00" type="DEFAULT_VEHTYPE" speed="8.96" pos="33.38" lane="a_0" slope="0.00"/>
        <vehicle id="1.0" x="23.00" y="491.75" angle="90.00" type="DEFAULT_VEHTYPE" speed="4.53" pos="11.65" lane="f_0" slope="0.00"/>
    </timestep>
    <timestep time="13.00">
        <vehicle id="0.0" x="156.60" y="-4.95" angle="90.00" type="DEFAULT_VEHTYPE" speed="14.33" pos="145.25" lane="a_1" slope="0.00"/>
        <vehicle id="0.1" x="56.23" y="-4.95" angle="90.00" type="DEFAULT_VEHTYPE" speed="11.50" pos="44.88" lane="a_1" slope="0.00"/>
        <vehicle id="1.0" x="29.24" y="491.75" angle="90.00" type="DEFAULT_VEHTYPE" speed="6.25" pos="17.89" lane="f_0" slope="0.00"/>
    </timestep>
    <timestep time="14.00">
        <vehicle id="0.0" x="170.78" y="-4.95" angle="90.00" type="DEFAULT_VEHTYPE" speed="14.18" pos="159.43" lane="a_1" slope="0.00"/>
        <vehicle id="0.1" x="69.11" y="-4.95" angle="90.00" type="DEFAULT_VEHTYPE" speed="12.88" pos="57.76" lane="a_1" slope="0.00"/>
        <vehicle id="0.2" x="16.45" y="-8.25" angle="90.00" type="DEFAULT_VEHTYPE" speed="0.00" pos="5.10" lane="a_0" slope="0.00"/>
        <vehicle id="1.0" x="37.69" y="491.75" angle="90.00" type="DEFAULT_VEHTYPE" speed="8.45" pos="26.34" lane="f_0" slope="0.00"/>
    </timestep>
    <timestep time="15.00">
        <vehicle id="0.0" x="185.26" y="-4.95" angle="90.00" type="DEFAULT_VEHTYPE" speed="14.48" pos="173.91" lane="a_1" slope="0.00"/>
        <vehicle id="0.1" x="83.40" y="-4.95" angle="90.00" type="DEFAULT_VEHTYPE" speed="14.29" pos="72.05" lane="a_1" slope="0.00"/>
        <vehicle id="0.2" x="17.98" y="-8.25" angle="90.00" type="DEFAULT_VEHTYPE" speed="1.53" pos="6.63" lane="a_0" slope="0.00"/>
        <vehicle id="1.0" x="47.58" y="491.75" angle="90.00" type="DEFAULT_VEHTYPE" speed="9.89" pos="36.23" lane="f_0" slope="0.00"/>
    </timestep>
    <timestep time="16.00">
        <vehicle id="0.0" x="199.87" y="-1.65" angle="90.00" type="DEFAULT_VEHTYPE" speed="14.61" pos="188.52" lane="a_2" slope="0.00"/>
        <vehicle id="0.1" x="97.41" y="-4.95" angle="90.00" type="DEFAULT_VEHTYPE" speed="14.01" pos="86.06" lane="a_1" slope="0.00"/>
        <vehicle id="0.2" x="21.80" y="-8.25" angle="90.00" type="DEFAULT_VEHTYPE" speed="3.82" pos="10.45" lane="a_0" slope="0.00"/>
        <vehicle id="1.0" x="60.03" y="495.05" angle="90.00" type="DEFAULT_VEHTYPE" speed="12.45" pos="48.68" lane="f_1" slope="0.00"/>
    </timestep>
    <timestep time="17.00">
        <vehicle id="0.0" x="213.63" y="-1.65" angle="90.00" type="DEFAULT_VEHTYPE" speed="13.76" pos="202.28" lane="a_2" slope="0.00"/>
        <vehicle id="0.1" x="111.52" y="-4.95" angle="90.00" type="DEFAULT_VEHTYPE" speed="14.11" pos="100.17" lane="a_1" slope="0.00"/>
        <vehicle id="0.2" x="28.18" y="-8.25" angle="90.00" type="DEFAULT_VEHTYPE" speed="6.38" pos="16.83" lane="a_0" slope="0.00"/>
        <vehicle id="1.0" x="74.82" y="495.05" angle="90.00" type="DEFAULT_VEHTYPE" speed="14.79" pos="63.47" lane="f_1" slope="0.00"/>
        <vehicle id="1.1" x="16.45" y="491.75" angle="90.00" type="DEFAULT_VEHTYPE" speed="0.00" pos="5.10" lane="f_0" slope="0.00"/>
    </timestep>
    <timestep time="18.00">
        <vehicle id="0.0" x="228.46" y="-1.65" angle="90.00" type="DEFAULT_VEHTYPE" speed="14.84" pos="217.11" lane="a_2" slope="0.00"/>
        <vehicle id="0.1" x="125.27" y="-4.95" angle="90.00" type="DEFAULT_VEHTYPE" speed="13.75" pos="113.92" lane="a_1" slope="0.00"/>
        <vehicle id="0.2" x="36.63" y="-8.25" angle="90.00" type="DEFAULT_VEHTYPE" speed="8.45" pos="25.28" lane="a_0" slope="0.00"/>
        <vehicle id="1.0" x="89.65" y="495.05" angle="90.00" type="DEFAULT_VEHTYPE" speed="14.83" pos="78.30" lane="f_1" slope="0.00"/>
        <vehicle id="1.1" x="18.62" y="491.75" angle="90.00" type="DEFAULT_VEHTYPE" speed="2.17" pos="7.27" lane="f_0" slope="0.00"/>
    </timestep>
    <timestep time="19.00">
        <vehicle id="0.0" x="243.24" y="-1.65" angle="90.00" type="DEFAULT_VEHTYPE" speed="14.78" pos="231.89" lane="a_2" slope="0.00"/>
        <vehicle id="0.1" x="139.95" y="-4.95" angle="90.00" type="DEFAULT_VEHTYPE" speed="14.69" pos="128.60" lane="a_1" slope="0.00"/>
        <vehicle id="0.2" x="46.93" y="-8.25" angle="90.00" type="DEFAULT_VEHTYPE" speed="10.30" pos="35.58" lane="a_0" slope="0.00"/>
        <vehicle id="1.0" x="104.36" y="495.05" angle="90.00" type="DEFAULT_VEHTYPE" speed="14.71" pos="93.01" lane="f_1" slope="0.00"/>
        <vehicle id="1.1" x="23.05" y="491.75" angle="90.00" type="DEFAULT_VEHTYPE" speed="4.43" pos="11.70" lane="f_0" slope="0.00"/>
    </timestep>
    <timestep time="20.00">
        <vehicle id="0.0" x="257.38" y="-1.65" angle="90.00" type="DEFAULT_VEHTYPE" speed="14.13" pos="246.03" lane="a_2" slope="0.00"/>
        <vehicle id="0.1" x="154.18" y="-4.95" angle="90.00" type="DEFAULT_VEHTYPE" speed="14.22" pos="142.83" lane="a_1" slope="0.00"/>
        <vehicle id="0.2" x="58.91" y="-4.95" angle="90.00" type="DEFAULT_VEHTYPE" speed="11.97" pos="47.56" lane="a_1" slope="0.00"/>
        <vehicle id="1.0" x="119.25" y="495.05" angle="90.00" type="DEFAULT_VEHTYPE" speed="14.88" pos="107.90" lane="f_1" slope="0.00"/>
        <vehicle id="1.1" x="29.02" y="491.75" angle="90.00" type="DEFAULT_VEHTYPE" speed="5.97" pos="17.67" lane="f_0" slope="0.00"/>
        <vehicle id="c.0" x="14.95" y="991.75" angle="90.00" type="DEFAULT_VEHTYPE" speed="0.00" pos="5.10" lane="k_0" slope="0.00"/>
    </timestep>
    <timestep time="21.00">
        <vehicle id="0.0" x="271.98" y="-1.65" angle="90.00" type="DEFAULT_VEHTYPE" speed="14.60" pos="260.63" lane="a_2" slope="0.00"/>
        <vehicle id="0.1" x="168.54" y="-4.95" angle="90.00" type="DEFAULT_VEHTYPE" speed="14.36" pos="157.19" lane="a_1" slope="0.00"/>
        <vehicle id="0.2" x="72.73" y="-4.95" angle="90.00" type="DEFAULT_VEHTYPE" speed="13.82" pos="61.38" lane="a_1" slope="0.00"/>
        <vehicle id="0.3" x="16.45" y="-8.25" angle="90.00" type="DEFAULT_VEHTYPE" speed="0.00" pos="5.10" lane="a_0" slope="0.00"/>
        <vehicle id="1.0" x="133.00" y="495.05" angle="90.00" type="DEFAULT_VEHTYPE" speed="13.75" pos="121.65" lane="f_1" slope="0.00"/>
        <vehicle id="1.1" x="36.37" y="491.75" angle="90.00" type="DEFAULT_VEHTYPE" speed="7.36" pos="25.02" lane="f_0" slope="0.00"/>
        <vehicle id="c.0" x="16.65" y="991.75" angle="90.00" type="DEFAULT_VEHTYPE" speed="1.70" pos="6.80" lane="k_0" slope="0.00"/>
    </timestep>
    <timestep time="22.00">
        <vehicle id="0.0" x="286.78" y="-1.65" angle="90.00" type="DEFAULT_VEHTYPE" speed="14.80" pos="275.43" lane="a_2" slope="0.00"/>
        <vehicle id="0.1" x="183.50" y="-1.65" angle="90.00" type="DEFAULT_VEHTYPE" speed="14.96" pos="172.15" lane="a_2" slope="0.00"/>
        <vehicle id="0.2" x="87.36" y="-4.95" angle="90.00" type="DEFAULT_VEHTYPE" speed="14.64" pos="76.01" lane="a_1" slope="0.00"/>
        <vehicle id="0.3" x="18.83" y="-8.25" angle="90.00" type="DEFAULT_VEHTYPE" speed="2.38" pos="7.48" lane="a_0" slope="0.00"/>
        <vehicle id="1.0" x="147.17" y="495.05" angle="90.00" type="DEFAULT_VEHTYPE" speed="14.17" pos="135.82" lane="f_1" slope="0.00"/>
        <vehicle id="1.1" x="46.09" y="491.75" angle="90.00" type="DEFAULT_VEHTYPE" speed="9.72" pos="34.74" lane="f_0" slope="0.00"/>
        <vehicle id="c.0" x="19.71" y="991.75" angle="90.00" type="DEFAULT_VEHTYPE" speed="3.06" pos="9.86" lane="k_0" slope="0.00"/>
    </timestep>
    <timestep time="23.00">
        <vehicle id="0.0" x="300.49" y="-1.65" angle="90.00" type="DEFAULT_VEHTYPE" speed="13.71" pos="289.14" lane="a_2" slope="0.00"/>
        <vehicle id="0.1" x="198.09" y="-1.65" angle="90.00" type="DEFAULT_VEHTYPE" speed="14.59" pos="186.74" lane="a_2" slope="0.00"/>
        <vehicle id="0.2" x="101.92" y="-4.95" angle="90.00" type="DEFAULT_VEHTYPE" speed="14.56" pos="90.57" lane="a_1" slope="0.00"/>
        <vehicle id="0.3" x="23.10" y="-8.25" angle="90.00" type="DEFAULT_VEHTYPE" speed="4.27" pos="11.75" lane="a_0" slope="0.00"/>
        <vehicle id="1.0" x="161.93" y="495.05" angle="90.00" type="DEFAULT_VEHTYPE" speed="14.77" pos="150.58" lane="f_1" slope="0.00"/>
        <vehicle id="1.1" x="58.32" y="495.05" angle="90.00" type="DEFAULT_VEHTYPE" speed="12.23" pos="46.97" lane="f_1" slope="0.00"/>
        <vehicle id="c.0" x="24.16" y="991.75" angle="90.00" type="DEFAULT_VEHTYPE" speed="4.45" pos="14.31" lane="k_0" slope="0.00"/>
    </timestep>
    <timestep time="24.00">
        <vehicle id="0.0" x="315.43" y="-1.65" angle="90.00" type="DEFAULT_VEHTYPE" speed="14.94" pos="304.08" lane="a_2" slope="0.00"/>
        <vehicle id="0.1" x="212.99" y="-1.65" angle="90.00" type="DEFAULT_VEHTYPE" speed="14.90" pos="201.64" lane="a_2" slope="0.00"/>
        <vehicle id="0.2" x="115.98" y="-4.95" angle="90.00" type="DEFAULT_VEHTYPE" speed="14.06" pos="104.63" lane="a_1" slope="0.00"/>
        <vehicle id="0.3" x="29.86" y="-8.25" angle="90.00" type="DEFAULT_VEHTYPE" speed="6.76" pos="18.51" lane="a_0" slope="0.00"/>
        <vehicle id="1.0" x="176.66" y="495.05" angle="90.00" type="DEFAULT_VEHTYPE" speed="14.73" pos="165.31" lane="f_1" slope="0.00"/>
        <vehicle id="1.1" x="72.91" y="495.05" angle="90.00" type="DEFAULT_VEHTYPE" speed="14.59" pos="61.56" lane="f_1" slope="0.00"/>
        <vehicle id="1.2" x="16.45" y="491.75" angle="90.00" type="DEFAULT_VEHTYPE" speed="0.00" pos="5.10" lane="f_0" slope="0.00"/>
        <vehicle id="c.0" x="30.48" y="991.75" angle="90.00" type="DEFAULT_VEHTYPE" speed="6.32" pos="20.63" lane="k_0" slope="0.00"/>
    </timestep>
    <timestep time="25.00">
        <vehicle id="0.0" x="329.63" y="-1.65" angle="90.00" type="DEFAULT_VEHTYPE" speed="14.20" pos="318.28" lane="a_2" slope="0.00"/>
        <vehicle id="0.1" x="227.48" y="-1.65" angle="90.00" type="DEFAULT_VEHTYPE" speed="14.49" pos="216.13" lane="a_2" slope="0.00"/>
        <vehicle id="0.2" x="130.32" y="-4.95" angle="90.00" type="DEFAULT_VEHTYPE" speed="14.33" pos="118.97" lane="a_1" slope="0.00"/>
        <vehicle id="0.3" x="38.84" y="-8.25" angle="90.00" type="DEFAULT_VEHTYPE" speed="8.98" pos="27.49" lane="a_0" slope="0.00"/>
        <vehicle id="1.0" x="190.78" y="495.05" angle="90.00" type="DEFAULT_VEHTYPE" speed="14.12" pos="179.43" lane="f_1" slope="0.00"/>
        <vehicle id="1.1" x="87.36" y="495.05" angle="90.00" type="DEFAULT_VEHTYPE" speed="14.45" pos="76.01" lane="f_1" slope="0.00"/>
        <vehicle id="1.2" x="18.59" y="491.75" angle="90.00" type="DEFAULT_VEHTYPE" speed="2.14" pos="7.24" lane="f_0" slope="0.00"/>
        <vehicle id="c.0" x="39.12" y="991.75" angle="90.00" type="DEFAULT_VEHTYPE" speed="8.64" pos="29.27" lane="k_0" slope="0.00"/>
    </timestep>
    <timestep time="26.00">
        <vehicle id="0.0" x="344.60" y="-1.65" angle="90.00" type="DEFAULT_VEHTYPE" speed="14.97" pos="333.25" lane="a_2" slope="0.00"/>
        <vehicle id="0.1" x="242.09" y="-1.65" angle="90.00" type="DEFAULT_VEHTYPE" speed="14.61" pos="230.74" lane="a_2" slope="0.00"/>
        <vehicle id="0.2" x="145.18" y="-4.95" angle="90.00" type="DEFAULT_VEHTYPE" speed="14.86" pos="133.83" lane="a_1" slope="0.00"/>
        <vehicle id="0.3" x="49.66" y="-4.95" angle="90.00" type="DEFAULT_VEHTYPE" speed="10.82" pos="38.31" lane="a_1" slope="0.00"/>
        <vehicle id="1.0" x="205.31" y="498.35" angle="90.00" type="DEFAULT_VEHTYPE" speed="14.53" pos="193.96" lane="f_2" slope="0.00"/>
        <vehicle id="1.1" x="101.09" y="495.05" angle="90.00" type="DEFAULT_VEHTYPE" speed="13.73" pos="89.74" lane="f_1" slope="0.00"/>
        <vehicle id="1.2" x="22.26" y="491.75" angle="90.00" type="DEFAULT_VEHTYPE" speed="3.67" pos="10.91" lane="f_0" slope="0.00"/>
        <vehicle id="c.0" x="49.82" y="991.75" angle="90.00" type="DEFAULT_VEHTYPE" speed="10.70" pos="39.97" lane="k_0" slope="0.00"/>
    </timestep>
    <timestep time="27.00">
        <vehicle id="0.0" x="359.04" y="-1.65" angle="90.00" type="DEFAULT_VEHTYPE" speed="14.45" pos="347.69" lane="a_2" slope="0.00"/>
        <vehicle id="0.1" x="256.16" y="-1.65" angle="90.00" type="DEFAULT_VEHTYPE" speed="14.08" pos="244.81" lane="a_2" slope="0.00"/>
        <vehicle id="0.2" x="159.59" y="-4.95" angle="90.00" type="DEFAULT_VEHTYPE" speed="14.41" pos="148.24" lane="a_1" slope="0.00"/>
        <vehicle id="0.3" x="61.95" y="-4.95" angle="90.00" type="DEFAULT_VEHTYPE" speed="12.28" pos="50.60" lane="a_1" slope="0.00"/>
        <vehicle id="1.0" x="219.17" y="498.35" angle="90.00" type="DEFAULT_VEHTYPE" speed="13.86" pos="207.82" lane="f_2" slope="0.00"/>
        <vehicle id="1.1" x="115.45" y="495.05" angle="90.00" type="DEFAULT_VEHTYPE" speed="14.36" pos="104.10" lane="f_1" slope="0.00"/>
        <vehicle id="1.2" x="27.72" y="491.75" angle="90.00" type="DEFAULT_VEHTYPE" speed="5.46" pos="16.37" lane="f_0" slope="0.00"/>
        <vehicle id="c.0" x="61.91" y="991.75" angle="90.00" type="DEFAULT_VEHTYPE" speed="12.09" pos="52.06" lane="k_0" slope="0.00"/>
        <vehicle id="c.1" x="14.95" y="991.75" angle="90.00" type="DEFAULT_VEHTYPE" speed="0.00" pos="5.10" lane="k_0" slope="0.00"/>
    </timestep>
    <timestep time="28.00">
        <vehicle id="0.0" x="373.14" y="-1.65" angle="90.00" type="DEFAULT_VEHTYPE" speed="14.09" pos="361.79" lane="a_2" slope="0.00"/>
        <vehicle id="0.1" x="271.03" y="-1.65" angle="90.00" type="DEFAULT_VEHTYPE" speed="14.87" pos="259.68" lane="a_2" slope="0.00"/>
        <vehicle id="0.2" x="173.98" y="-4.95" angle="90.00" type="DEFAULT_VEHTYPE" speed="14.39" pos="162.63" lane="a_1" slope="0.00"/>
        <vehicle id="0.3" x="75.97" y="-4.95" angle="90.00" type="DEFAULT_VEHTYPE" speed="14.02" pos="64.62" lane="a_1" slope="0.00"/>
        <vehicle id="0.4" x="16.45" y="-8.25" angle="90.00" type="DEFAULT_VEHTYPE" speed="0.00" pos="5.10" lane="a_0" slope="0.00"/>
        <vehicle id="1.0" x="233.42" y="498.35" angle="90.00" type="DEFAULT_VEHTYPE" speed="14.25" pos="222.07" lane="f_2" slope="0.00"/>
        <vehicle id="1.1" x="130.01" y="495.05" angle="90.00" type="DEFAULT_VEHTYPE" speed="14.55" pos="118.66" lane="f_1" slope="0.00"/>
        <vehicle id="1.2" x="34.51" y="491.75" angle="90.00" type="DEFAULT_VEHTYPE" speed="6.79" pos="23.16" lane="f_0" slope="0.00"/>
        <vehicle id="c.0" x="76.22" y="991.75" angle="90.00" type="DEFAULT_VEHTYPE" speed="14.31" pos="66.37" lane="k_0" slope="0.00"/>
        <vehicle id="c.1" x="17.02" y="991.75" angle="90.00" type="DEFAULT_VEHTYPE" speed="2.07" pos="7.17" lane="k_0" slope="0.00"/>
    </timestep>
    <timestep time="29.00">
        <vehicle id="0.0" x="386.99" y="-1.65" angle="90.00" type="DEFAULT_VEHTYPE" speed="13.85" pos="375.64" lane="a_2" slope="0.00"/>
        <vehicle id="0.1" x="285.55" y="-1.65" angle="90.00" type="DEFAULT_VEHTYPE" speed="14.52" pos="274.20" lane="a_2" slope="0.00"/>
        <vehicle id="0.2" x="188.36" y="-1.65" angle="90.00" type="DEFAULT_VEHTYPE" speed="14.38" pos="177.01" lane="a_2" slope="0.00"/>
        <vehicle id="0.3" x="90.92" y="-4.95" angle="90.00" type="DEFAULT_VEHTYPE" speed="14.94" pos="79.57" lane="a_1" slope="0.00"/>
        <vehicle id="0.4" x="18.03" y="-8.25" angle="90.00" type="DEFAULT_VEHTYPE" speed="1.58" pos="6.68" lane="a_0" slope="0.00"/>
        <vehicle id="1.0" x="248.06" y="498.35" angle="90.00" type="DEFAULT_VEHTYPE" speed="14.63" pos="236.71" lane="f_2" slope="0.00"/>
        <vehicle id="1.1" x="144.82" y="495.05" angle="90.00" type="DEFAULT_VEHTYPE" speed="14.82" pos="133.47" lane="f_1" slope="0.00"/>
        <vehicle id="1.2" x="42.98" y="491.75" angle="90.00" type="DEFAULT_VEHTYPE" speed="8.47" pos="31.63" lane="f_0" slope="0.00"/>
        <vehicle id="c.0" x="91.06" y="991.75" angle="90.00" type="DEFAULT_VEHTYPE" speed="14.84" pos="81.21" lane="k_0" slope="0.00"/>
        <vehicle id="c.1" x="20.75" y="991.75" angle="90.00" type="DEFAULT_VEHTYPE" speed="3.74" pos="10.90" lane="k_0" slope="0.00"/>
    </timestep>
    <timestep time="30.00">
        <vehicle id="0.0" x="401.54" y="-1.65" angle="90.00" type="DEFAULT_VEHTYPE" speed="14.55" pos="390.19" lane="a_2" slope="0.00"/>
        <vehicle id="0.1" x="299.69" y="-1.65" angle="90.00" type="DEFAULT_VEHTYPE" speed="14.14" pos="288.34" lane="a_2" slope="0.00"/>
        <vehicle id="0.2" x="202.80" y="-1.65" angle="90.00" type="DEFAULT_VEHTYPE" speed="14.44" pos="191.45" lane="a_2" slope="0.00"/>
        <vehicle id="0.3" x="105.15" y="-4.95" angle="90.00" type="DEFAULT_VEHTYPE" speed="14.23" pos="93.80" lane="a_1" slope="0.00"/>
        <vehicle id="0.4" x="21.71" y="-8.25" angle="90.00" type="DEFAULT_VEHTYPE" speed="3.68" pos="10.36" lane="a_0" slope="0.00"/>
        <vehicle id="1.0" x="262.18" y="498.35" angle="90.00" type="DEFAULT_VEHTYPE" speed="14.12" pos="250.83" lane="f_2" slope="0.00"/>
        <vehicle id="1.1" x="158.65" y="495.05" angle="90.00" type="DEFAULT_VEHTYPE" speed="13.82" pos="147.30" lane="f_1" slope="0.00"/>
        <vehicle id="1.2" x="52.78" y="491.75" angle="90.00" type="DEFAULT_VEHTYPE" speed="9.80" pos="41.43" lane="f_0" slope="0.00"/>
        <vehicle id="c.0" x="104.96" y="991.75" angle="90.00" type="DEFAULT_VEHTYPE" speed="13.90" pos="95.11" lane="k_0" slope="0.00"/>
        <vehicle id="c.1" x="26.89" y="991.75" angle="90.00" type="DEFAULT_VEHTYPE" speed="6.14" pos="17.04" lane="k_0" slope="0.00"/>
    </timestep>
    <timestep time="31.00">
        <vehicle id="0.0" x="415.43" y="-1.65" angle="90.00" type="DEFAULT_VEHTYPE" speed="13.89" pos="404.08" lane="a_2" slope="0.00"/>
        <vehicle id="0.1" x="313.85" y="-1.65" angle="90.00" type="DEFAULT_VEHTYPE" speed="14.17" pos="302.50" lane="a_2" slope="0.00"/>
        <vehicle id="0.2" x="216.73" y="-1.65" angle="90.00" type="DEFAULT_VEHTYPE" speed="13.93" pos="205.38" lane="a_2" slope="0.00"/>
        <vehicle id="0.3" x="118.92" y="-4.95" angle="90.00" type="DEFAULT_VEHTYPE" speed="13.77" pos="107.57" lane="a_1" slope="0.00"/>
        <vehicle id="0.4" x="27.63" y="-8.25" angle="90.00" type="DEFAULT_VEHTYPE" speed="5.92" pos="16.28" lane="a_0" slope="0.00"/>
        <vehicle id="1.0" x="276.69" y="498.35" angle="90.00" type="DEFAULT_VEHTYPE" speed="14.51" pos="265.34" lane="f_2" slope="0.00"/>
        <vehicle id="1.1" x="173.51" y="495.05" angle="90.00" type="DEFAULT_VEHTYPE" speed="14.87" pos="162.16" lane="f_1" slope="0.00"/>
        <vehicle id="1.2" x="64.29" y="495.05" angle="90.00" type="DEFAULT_VEHTYPE" speed="11.51" pos="52.94" lane="f_1" slope="0.00"/>
        <vehicle id="1.3" x="16.45" y="491.75" angle="90.00" type="DEFAULT_VEHTYPE" speed="0.00" pos="5.10" lane="f_0" slope="0.00"/>
        <vehicle id="c.0" x="119.19" y="991.75" angle="90.00" type="DEFAULT_VEHTYPE" speed="14.23" pos="109.34" lane="k_0" slope="0.00"/>
        <vehicle id="c.1" x="34.89" y="991.75" angle="90.00" type="DEFAULT_VEHTYPE" speed="7.99" pos="25.04" lane="k_0" slope="0.00"/>
    </timestep>
    <timestep time="32.00">
        <vehicle id="0.0" x="429.98" y="-1.65" angle="90.00" type="DEFAULT_VEHTYPE" speed="14.55" pos="418.63" lane="a_2" slope="0.00"/>
        <vehicle id="0.1" x="327.82" y="-1.65" angle="90.00" type="DEFAULT_VEHTYPE" speed="13.96" pos="316.47" lane="a_2" slope="0.00"/>
        <vehicle id="0.2" x="231.12" y="-1.65" angle="90.00" type="DEFAULT_VEHTYPE" speed="14.39" pos="219.77" lane="a_2" slope="0.00"/>
        <vehicle id="0.3" x="133.48" y="-4.95" angle="90.00" type="DEFAULT_VEHTYPE" speed="14.56" pos="122.13" lane="a_1" slope="0.00"/>
        <vehicle id="0.4" x="35.43" y="-8.25" angle="90.00" type="DEFAULT_VEHTYPE" speed="7.80" pos="24.08" lane="a_0" slope="0.00"/>
        <vehicle id="1.0" x="291.67" y="498.35" angle="90.00" type="DEFAULT_VEHTYPE" speed="14.98" pos="280.32" lane="f_2" slope="0.00"/>
        <vehicle id="1.1" x="187.34" y="498.35" angle="90.00" type="DEFAULT_VEHTYPE" speed="13.83" pos="175.99" lane="f_2" slope="0.00"/>
        <vehicle id="1.2" x="78.18" y="495.05" angle="90.00" type="DEFAULT_VEHTYPE" speed="13.89" pos="66.83" lane="f_1" slope="0.00"/>
        <vehicle id="1.3" x="17.77" y="491.75" angle="90.00" type="DEFAULT_VEHTYPE" speed="1.32" pos="6.42" lane="f_0" slope="0.00"/>
        <vehicle id="c.0" x="133.04" y="991.75" angle="90.00" type="DEFAULT_VEHTYPE" speed="13.85" pos="123.19" lane="k_0" slope="0.00"/>
        <vehicle id="c.1" x="44.85" y="991.75" angle="90.00" type="DEFAULT_VEHTYPE" speed="9.97" pos="35.00" lane="k_0" slope="0.00"/>
    </timestep>
    <timestep time="33.00">
        <vehicle id="0.0" x="444.83" y="-1.65" angle="90.00" type="DEFAULT_VEHTYPE" speed="14.85" pos="433.48" lane="a_2" slope="0.00"/>
        <vehicle id="0.1" x="341.71" y="-1.65" angle="90.00" type="DEFAULT_VEHTYPE" speed="13.89" pos="330.36" lane="a_2" slope="0.00"/>
        <vehicle id="0.2" x="245.05" y="-1.65" angle="90.00" type="DEFAULT_VEHTYPE" speed="13.93" pos="233.70" lane="a_2" slope="0.00"/>
        <vehicle id="0.3" x="147.97" y="-4.95" angle="90.00" type="DEFAULT_VEHTYPE" speed="14.49" pos="136.62" lane="a_1" slope="0.00"/>
        <vehicle id="0.4" x="45.83" y="-4.95" angle="90.00" type="DEFAULT_VEHTYPE" speed="10.40" pos="34.48" lane="a_1" slope="0.00"/>
        <vehicle id="1.0" x="305.81" y="498.35" angle="90.00" type="DEFAULT_VEHTYPE" speed="14.14" pos="294.46" lane="f_2" slope="0.00"/>
        <vehicle id="1.1" x="201.15" y="498.35" angle="90.00" type="DEFAULT_VEHTYPE" speed="13.81" pos="189.80" lane="f_2" slope="0.00"/>
        <vehicle id="1.2" x="92.65" y="495.05" angle="90.00" type="DEFAULT_VEHTYPE" speed="14.46" pos="81.30" lane="f_1" slope="0.00"/>
        <vehicle id="1.3" x="21.68" y="491.75" angle="90.00" type="DEFAULT_VEHTYPE" speed="3.91" pos="10.33" lane="f_0" slope="0.00"/>
        <vehicle id="c.0" x="147.40" y="991.75" angle="90.00" type="DEFAULT_VEHTYPE" speed="14.37" pos="137.55" lane="k_0" slope="0.00"/>
        <vehicle id="c.1" x="56.24" y="991.75" angle="90.00" type="DEFAULT_VEHTYPE" speed="11.38" pos="46.39" lane="k_0" slope="0.00"/>
    </timestep>
    <timestep time="34.00">
        <vehicle id="0.0" x="459.40" y="-1.65" angle="90.00" type="DEFAULT_VEHTYPE" speed="14.57" pos="448.05" lane="a_2" slope="0.00"/>
        <vehicle id="0.1" x="356.44" y="-1.65" angle="90.00" type="DEFAULT_VEHTYPE" speed="14.73" pos="345.09" lane="a_2" slope="0.00"/>
        <vehicle id="0.2" x="259.86" y="-1.65" angle="90.00" type="DEFAULT_VEHTYPE" speed="14.80" pos="248.51" lane="a_2" slope="0.00"/>
        <vehicle id="0.3" x="162.39" y="-4.95" angle="90.00" type="DEFAULT_VEHTYPE" speed="14.42" pos="151.04" lane="a_1" slope="0.00"/>
        <vehicle id="0.4" x="58.41" y="-4.95" angle="90.00" type="DEFAULT_VEHTYPE" speed="12.58" pos="47.06" lane="a_1" slope="0.00"/>
        <vehicle id="1.0" x="319.52" y="498.35" angle="90.00" type="DEFAULT_VEHTYPE" speed="13.70" pos="308.17" lane="f_2" slope="0.00"/>
        <vehicle id="1.1" x="215.51" y="498.35" angle="90.00" type="DEFAULT_VEHTYPE" speed="14.37" pos="204.16" lane="f_2" slope="0.00"/>
        <vehicle id="1.2" x="106.55" y="495.05" angle="90.00" type="DEFAULT_VEHTYPE" speed="13.90" pos="95.20" lane="f_1" slope="0.00"/>
        <vehicle id="1.3" x="26.98" y="491.75" angle="90.00" type="DEFAULT_VEHTYPE" speed="5.29" pos="15.63" lane="f_0" slope="0.00"/>
        <vehicle id="c.0" x="161.38" y="991.75" angle="90.00" type="DEFAULT_VEHTYPE" speed="13.98" pos="151.53" lane="k_0" slope="0.00"/>
        <vehicle id="c.1" x="69.62" y="991.75" angle="90.00" type="DEFAULT_VEHTYPE" speed="13.38" pos="59.77" lane="k_0" slope="0.00"/>
        <vehicle id="c.2" x="14.95" y="991.75" angle="90.00" type="DEFAULT_VEHTYPE" speed="0.00" pos="5.10" lane="k_0" slope="0.00"/>
    </timestep>
    <timestep time="35.00">
        <vehicle id="0.0" x="473.37" y="-1.65" angle="90.00" type="DEFAULT_VEHTYPE" speed="13.97" pos="462.02" lane="a_2" slope="0.00"/>
        <vehicle id="0.1" x="371.29" y="-1.65" angle="90.00" type="DEFAULT_VEHTYPE" speed="14.85" pos="359.94" lane="a_2" slope="0.00"/>
        <vehicle id="0.2" x="274.73" y="-1.65" angle="90.00" type="DEFAULT_VEHTYPE" speed="14.87" pos="263.38" lane="a_2" slope="0.00"/>
        <vehicle id="0.3" x="177.10" y="-1.65" angle="90.00" type="DEFAULT_VEHTYPE" speed="14.71" pos="165.75" lane="a_2" slope="0.00"/>
        <vehicle id="0.4" x="73.12" y="-4.95" angle="90.00" type="DEFAULT_VEHTYPE" speed="14.70" pos="61.77" lane="a_1" slope="0.00"/>
        <vehicle id="0.5" x="16.45" y="-8.25" angle="90.00" type="DEFAULT_VEHTYPE" speed="0.00" pos="5.10" lane="a_0" slope="0.00"/>
        <vehicle id="1.0" x="333.58" y="498.35" angle="90.00" type="DEFAULT_VEHTYPE" speed="14.06" pos="322.23" lane="f_2" slope="0.00"/>
        <vehicle id="1.1" x="229.93" y="498.35" angle="90.00" type="DEFAULT_VEHTYPE" speed="14.42" pos="218.58" lane="f_2" slope="0.00"/>
        <vehicle id="1.2" x="121.38" y="495.05" angle="90.00" type="DEFAULT_VEHTYPE" speed="14.83" pos="110.03" lane="f_1" slope="0.00"/>
        <vehicle id="1.3" x="34.39" y="491.75" angle="90.00" type="DEFAULT_VEHTYPE" speed="7.42" pos="23.04" lane="f_0" slope="0.00"/>
        <vehicle id="c.0" x="175.34" y="991.75" angle="90.00" type="DEFAULT_VEHTYPE" speed="13.96" pos="165.49" lane="k_0" slope="0.00"/>
        <vehicle id="c.1" x="84.41" y="991.75" angle="90.00" type="DEFAULT_VEHTYPE" speed="14.80" pos="74.56" lane="k_0" slope="0.00"/>
        <vehicle id="c.2" x="16.80" y="991.75" angle="90.00" type="DEFAULT_VEHTYPE" speed="1.85" pos="6.95" lane="k_0" slope="0.00"/>
    </timestep>
    <timestep time="36.00">
        <vehicle id="0.0" x="487.15" y="-1.65" angle="90.00" type="DEFAULT_VEHTYPE" speed="13.78" pos="475.80" lane="a_2" slope="0.00"/>
        <vehicle id="0.1" x="386.00" y="-1.65" angle="90.00" type="DEFAULT_VEHTYPE" speed="14.71" pos="374.65" lane="a_2" slope="0.00"/>
        <vehicle id="0.2" x="288.53" y="-1.65" angle="90.00" type="DEFAULT_VEHTYPE" speed="13.81" pos="277.18" lane="a_2" slope="0.00"/>
        <vehicle id="0.3" x="191.36" y="-1.65" angle="90.00" type="DEFAULT_VEHTYPE" speed="14.26" pos="180.01" lane="a_2" slope="0.00"/>